ITEM: TIMESTEP
0
ITEM: NUMBER OF ATOMS
32
ITEM: BOX BOUNDS pp pp pp
0.0000000000000000e+00 8.0999999999999996e+00
0.0000000000000000e+00 8.0999999999999996e+00
0.0000000000000000e+00 8.0999999999999996e+00
ITEM: ATOMS id type xsu ysu zsu fx fy fz vx vy vz
1 1                    0                    0                    0 -5.96744875736022e-16 -7.3899220076612e-16 -6.55725473919233e-16    -2.79601111740842    0.940219581254378    -8.30002819983465
2 1                    0                 0.25                 0.25 2.77555756156289e-17 -1.38777878078145e-17 7.48099499014998e-17    -4.94074425597575    -3.65891714671419    -6.80266664317903
3 1                 0.25                    0                 0.25 6.93889390390723e-17 2.07895766574095e-17 9.82745297856802e-17    0.722037787548748    -4.01396283514241    -0.74430366213265
4 1                 0.25                 0.25                    0 6.24500451351651e-17 -1.73472347597681e-17 -1.78893358460108e-18    0.692241851718985     2.25350878856819    -5.29614685086083
5 1                    0                    0                  0.5 8.32667268468867e-17 -1.33053290607421e-15 -4.47558656802016e-16     2.24788566722388    -12.2017511921725     4.90516413112414
6 1                    0                 0.25                 0.75 -2.22044604925031e-16 3.03576608295941e-16 1.00440489259057e-15     1.29624376271401     3.93342750513843     7.23170028551643
7 1                 0.25                    0                 0.75 3.05311331771918e-16 -3.02248460634646e-16 9.52363188311267e-16     1.74943915741948     3.00500098950916     4.97395891948389
8 1                 0.25                 0.25                  0.5 1.11022302462516e-16 -9.36750677027476e-17 -9.85322934354826e-16    -8.02837998769098     -3.9349393791528     10.4269027796531
9 1                    0                  0.5                    0 6.93889390390723e-17 -4.01588484688631e-16 -1.33486971476415e-15     4.28884874767606     6.80470730089736    -2.21451465989137
10 1                    0                 0.75                 0.25 -1.66533453693773e-16 1.09721259855533e-15 2.68882138776405e-16    -4.31373707715814     2.58958471751361    -4.37498027688682
11 1                 0.25                  0.5                 0.25 1.66533453693773e-16 -9.12464548363801e-16 6.94380069434426e-18     5.07395979711157     2.47892805444547    -6.76149154663064
12 1                 0.25                 0.75                    0 3.19189119579733e-16 1.04603825601401e-15 -2.8796409701215e-16    -4.31994107132092     2.07828252349274     3.32404383180795
13 1                    0                  0.5                  0.5 4.85722573273506e-17 -4.60569082871842e-16 -4.60569082871842e-16     7.13230212077326    -8.33216509489919    -2.44483806029371
14 1                    0                 0.75                 0.75 -3.57179563703625e-15 9.15933995315754e-16 8.77770078844264e-16     4.89972304719211    0.112787811167592    -1.23403131650617
15 1                 0.25                  0.5                 0.75 -2.92127433354494e-15 -8.22258927613007e-16 1.85355203408122e-15   -0.709786499861591     3.00900810742163   -0.150266108369628
16 1                 0.25                 0.75                  0.5 -2.87270207621759e-15 1.88217497143484e-15 -7.70217223333702e-16    -8.53034436538373    -4.17937709235293    -5.47981689827602
17 1                  0.5                    0                    0 -5.59882001871514e-16 -6.07099006483258e-16 -5.55057302203954e-16    -9.99677731560776     7.37410952246131   -0.655690221600022
18 1                  0.5                 0.25                 0.25 -1.08376849161651e-15 -4.16284566330063e-17 3.47435374239065e-18    -5.43423676088373     14.2428590478778     4.88588432900882
19 1                 0.75                    0                 0.25 1.03909936211011e-15 -5.41233724504764e-16 1.38777878078145e-17    -8.73667596236719    -2.04105245116838     7.97163044419037
20 1                 0.75                 0.25                    0 9.52363188311267e-16 5.20417042793042e-18 -5.79397640976254e-16     6.90185946005524   -0.941167652924293     12.8051177001292
21 1                  0.5                    0                  0.5 -6.68302219120065e-16 -2.76634184309676e-16 -8.00682223682079e-16    -3.15262714302711     -1.0915291742204     0.23494007937974
22 1                  0.5                 0.25                 0.75 -3.12250225675825e-16 -7.04292824456147e-16 1.30090708171104e-15     14.2968939161176   -0.462293901817291    -7.24554022140511
23 1                 0.75                    0                 0.75 1.87350135405495e-15 -1.62370117351429e-15 1.33573707650214e-15    -0.19960222370334      1.3637015087338    -6.69584493335249
24 1                 0.75                 0.25                  0.5 1.30364469219657e-15 -1.59594559789866e-16 -8.54026051266832e-16      3.4600544919084    -12.3461144154588     -4.6771421613027
25 1                  0.5                  0.5                    0 -6.28403579172598e-16 -7.90707563695212e-16 -2.66225843453816e-16     3.98691644524084     4.52701410164174    -5.13619390451033
26 1                  0.5                 0.75                 0.25 -3.72965547335014e-16 1.37203074422609e-15 -7.38987293975683e-16     2.14243704197496      3.5032118480723   -0.857650176025561
27 1                 0.75                  0.5                 0.25 1.25507243486922e-15 -8.19331581747296e-16 -8.32667268468867e-17     6.71713434675774    -3.23688772072604     4.72766686746852
28 1                 0.75                 0.75                    0 1.85615411929518e-15 1.44675937896466e-15 -1.59247615094671e-15    -3.54177718103227    -1.58573321329774    0.819722716936477
29 1                  0.5                  0.5                  0.5 -5.76795555762288e-16 -1.66961988202843e-15 -1.65569063062136e-15    -4.44184934521892     1.65340185739362     1.36711569730689
30 1                  0.5                 0.75                 0.75 -1.7130394325271e-17 2.22724941788266e-15 2.22724941788266e-15     4.65010314454261     1.12521422641198     5.95873103531952
31 1                 0.75                  0.5                 0.75 2.50513043469069e-15 1.44524149592318e-16 1.89418251049511e-15    -2.22160662672608      6.2174197800541    -3.28917701524065
32 1                 0.75                 0.75                  0.5 2.47352594136274e-15  1.9106894885712e-15 2.02528965820292e-16     1.10601614739044    -9.18649600200824     2.72774403897331
ITEM: TIMESTEP
100
ITEM: NUMBER OF ATOMS
32
ITEM: BOX BOUNDS pp pp pp
-6.9818212918970834e-02 8.1698182129189725e+00
-6.9818212918970834e-02 8.1698182129189725e+00
-6.9818212918970834e-02 8.1698182129189725e+00
ITEM: ATOMS id type xsu ysu zsu fx fy fz vx vy vz
1 1 -0.00804740860371567 -0.000546089546617168  -0.0024881046250016    0.023533363338984    0.128109244320287  -0.0242957781619878     2.59308687360025      2.2729150122806     6.76560318556873
2 1   0.0380824191104239    0.230546032285361    0.242703369298624   -0.885097162351847    0.517998249025587  -0.0142044753995762    -1.19501582050417     7.04605973498972     1.32366996711984
3 1     0.25039276047039  0.00666513951114212     0.24944603047868    0.316816692978775   -0.529006420758493   -0.167730110312973     4.90044185854838    -2.89554995018379    -2.28082322698888
4 1    0.261164113405698    0.273669472372376  -0.0126013187536387   -0.106005176458795   -0.551402627118959   0.0523418603364739    0.172085566224615    -4.92807315514322     1.67683530285732
5 1  -0.0012482967424603 -0.00767324248414525    0.493760714024916     0.13336564622909  -0.0704665044990543    0.277300870221583    -0.69422291105453      6.6188304823648    -2.15885043755076
6 1  -0.0299204945027327     0.24888568065046    0.762235070984843    0.746193169880516   -0.233595825947141  -0.0545601130435395     2.54897749110722     -7.9559982099921    -4.88882445016137
7 1    0.243453206425329 -0.00313867803265566    0.759742494518719  -0.0788390628866355    0.322130641813651   -0.188584548663139    -5.39778426117779     1.29392638772436    -1.11728972041176
8 1    0.251026905430308    0.233580430156849    0.517423426301207    -0.16794113041774    0.457422953483887    0.115658207215212     5.16813467667845     6.93956387137964    -3.57957115820377
9 1  -0.0198079446244037    0.500601734165343   0.0120366149150186    0.238206403002875   0.0499673919731361   -0.264637519706277     -4.6530834795391    -5.39290534975554     3.12637232884248
10 1  -0.0105459067398783    0.762249931993324    0.244210465578703    0.145161876609661    -0.18851205718757  -0.0726724125630977     5.41297312733723    -1.44762922251855     2.66623370208408
11 1    0.227294419405666    0.513412112951642    0.227032445187433    0.540771343393755    -0.23100565332629    0.213303411887349    -3.45812155387156    -3.20838983018015     3.61528823894706
12 1    0.265336403478386    0.776155555193213 -0.00284223335989964   -0.340372073438486   -0.471158583329844    0.198088085475309     2.78510769746587    -1.78572031171639   -0.561877369022983
13 1   0.0152461550025009     0.48611601738412    0.489431353354576  -0.0700243940814131     0.24180147615004    0.157734170984188    -2.53613139522316     7.58096036404613      2.4282635507713
14 1 0.000348598444702475    0.731827683942583    0.746841088178599    0.236744682197245    0.370549948613595    0.012985018078057    -1.23678130304937    0.248228329058346    -1.72172218805994
15 1    0.265233595090422    0.511059381071959    0.758611766112722   -0.384955805358179   -0.119864617623314   -0.125583908896853    -2.31318217631905    -2.12668593529393    0.945281986771389
16 1    0.247214950502212    0.738778633133506    0.484349955646735   -0.228728288205426    0.201940940916532    0.296710605384852     1.95644026935708     5.33782349363708     5.18369402719817
17 1    0.518813188385707    0.025342165379584   0.0160537285637474   -0.858105152856579    -0.53291741370268   -0.507900438599697     2.01036669730613    -7.13422801748943    -1.87737456612765
18 1    0.489631850733758    0.243485172620581    0.275942917411157   0.0602553544969183    0.489196800566887   -0.141910444327548     2.16030400547587    -8.78885104489703    0.615711296284454
19 1     0.73238221699819 -0.00776684117130344    0.251984255335515    0.375068977474408    0.176950924755606    0.329996659037726     7.17187443916001     3.19724558235904    -2.16963172720309
20 1     0.72697005922646    0.256347742249659   0.0111472677950815    0.856579662143869   -0.149761158963822   0.0636467954165515     1.72476661637619     1.08220583711079    -5.76710316172482
21 1    0.478750772434296  -0.0151825756141761    0.503007854683801    0.512961660750333    0.112682496807751  -0.0838751288798574     6.96136324510539   0.0199948423733233    -2.77359646847513
22 1    0.521106139257654    0.256691510455425    0.742154665971725  -0.0736591380768973    -0.25501459994782   -0.149783574249034    -9.41945021436727    -2.29828130031157     2.54439149394048
23 1    0.749826089971748  -0.0223640543947567    0.744494150314267  0.00190366923196117    0.575993025627473   -0.196193760014896    -0.83224454249961     1.56271235373943     1.32020627229058
24 1    0.784976611072011    0.248975314983909    0.486744621239609   -0.732241390805363   -0.137172968857688    0.108702808265022    -4.06278232870449     7.37264315784675     3.79705777311994
25 1    0.515901343460655    0.497926585739378  0.00168128061818607   -0.329683902708425    0.343317269011241   -0.113683263509915    -2.13509073115664     1.18227712589442     3.92855254358678
26 1     0.48869199371984    0.725854628433467    0.246262056050455    0.270574415829593    0.595888714247457   0.0576209797328298    -1.05082282046863    -1.81192391172761   0.0254738479927349
27 1    0.748056916341966    0.494041258839843    0.252896081635072   0.0930811436293896    0.113307651763914    0.148957493621732    -5.70937849038292     1.43021373511714    -4.34043037308536
28 1      0.7415521048041    0.768570064747223  -0.0037714089106089 -0.00936090163643548   -0.582909624362493    0.144169662416365     -1.6897435175945    -2.23997292903719    -1.72635952021976
29 1    0.497638517301198    0.511114673343059    0.508810957987862    0.132473435779561   -0.327177318563283  -0.0981416451610698     6.85927167838617    -3.14376479566998    -2.13491953122484
30 1    0.488997662275892    0.767353118729829    0.750142598888374    0.353422149828621   -0.402161755773989   0.0996740317939748   -0.301359260291976    -4.62455774359365    -2.64045276889823
31 1     0.76946369213681    0.500262779626155    0.751539292887173   -0.664710291268538    0.249624978417193   -0.234160925499999    -3.16262092201989    0.450194622392374    0.511226603891507
32 1    0.752017366326527    0.747158661283606    0.491016541686463   -0.107389776244794   -0.164755577531794    0.161027387122236    -2.57737851390424     6.14673677519621   -0.735035453908514
ITEM: TIMESTEP
200
ITEM: NUMBER OF ATOMS
32
ITEM: BOX BOUNDS pp pp pp
-3.3682467056236565e-02 8.1336824670562464e+00
-3.3682467056236565e-02 8.1336824670562464e+00
-3.3682467056236565e-02 8.1336824670562464e+00
ITEM: ATOMS id type xsu ysu zsu fx fy fz vx vy vz
1 1   0.0158826630540716  -0.0084777738375692  0.00680439759435103   -0.196462168180357    0.392099250389019    0.261170198221162   -0.822990895248075     -3.7581697174723    -4.65565065743346
2 1  -0.0397531814632544    0.297802636181245    0.277244672144548     0.90236148336992    -0.64203566022099    -0.57293026853873     1.21794740355002     1.01074994461557   -0.150621044697138
3 1    0.263253425574931  -0.0110592543176722    0.264652685426427    0.108414049610395  0.00348573354375781   -0.356200172609079    -2.69407606331968     3.04714455009463     4.60797386399289
4 1    0.241728747548791    0.224506577550073   0.0330372351511414   -0.111126640707218    0.398560043853427   -0.367521884912738    -2.34821290986832     5.07371851802558     3.05071239863714
5 1   0.0155268996610403   0.0179081012790903     0.48257391302559   -0.381482123261718   -0.225716615624815    0.389484824577215    0.647053068353887    -3.59716481932375     1.80932640062138
6 1   0.0176132008054992    0.266496992550287     0.74074062759837    -0.51550502758815    -1.08540709199771   0.0665579453565037    -4.32081156609926     3.92894510682845     1.39653734128016
7 1    0.263729105100765 -0.00945389559581145    0.742494355453459   -0.660427965382264    0.219966048421779 0.000877001998293001     5.25865589558308    -2.28471533639178     0.90652884670425
8 1    0.243626029309098    0.260646271270502    0.482381986246651    0.269948393267507   -0.118339074328502   0.0835698274965684    -4.12132712057051    -10.3243189202587    -1.02917835952218
9 1   0.0136002751372644    0.493577478248653  -0.0226330441856248   -0.868864923156765   -0.310701841525845    0.875203019894823      1.8516136764523    0.618459193176768    0.776715025012054
10 1   0.0154694402009454    0.734687371153882    0.251783353094311    -0.15124303364866     0.11818655948559    0.151659578117395     -2.6218966329736     -1.3232791882276  -0.0398374456403712
11 1    0.281285496005239    0.506019960066055    0.261728681932823   -0.862954343083869  -0.0232653583133404   -0.457932309470089    0.485516617288528     4.70873025699958    -4.09835182059996
12 1    0.220347154319938      0.7170730237915 -0.00869849415789758     1.02422630612049    0.845245099284869    0.174660619894921    -1.32562538455893    0.998402345543081    0.877548567743225
13 1  -0.0241867556287048    0.523460482382461    0.522185373492448    0.502970521815953   -0.222694584097109  -0.0797144742383499      1.0285168369888    -5.51671101517798     2.12661635732137
14 1  -0.0173565807821205    0.787558362061986     0.76789627270125    0.418584282178967   -0.955547014745781   -0.896623519420993    -1.80671772124879     1.33594591062159     -1.1814599465054
15 1    0.226027610902747    0.489568724783226    0.746683362572753    0.935887989452809    0.456287768329374   -0.423680866738279     6.28136798663361     3.90833356651583    -5.90641122148315
16 1    0.255974802102628     0.75581242998453    0.514960729740551   -0.328241070429754   -0.113776889025981   -0.286071663054071    -1.23916778927868    -6.90873585045015    -5.05461891844834
17 1    0.487859414071863  -0.0463067972473823  -0.0281727426710745     0.31403033939526    0.656433288785259    0.869327164331682   -0.344767300104072    0.985997964254851     2.67077093880186
18 1     0.52936958741941    0.247268575419525    0.203853042416426   -0.354337654480925   -0.440389513482705     1.07424804665811     1.44310156276676     1.99259330362926    -4.48040285622303
19 1    0.768665431420914  0.00916985546984961    0.244840116673686   -0.116685072987122   -0.144927660177894   0.0238316996543662     -6.6425885966877    -4.99443982402415   -0.256139212908246
20 1    0.754081331069983     0.23624207152659  -0.0201656553300609     0.27727784263054    0.259286474751919    0.174005397263784   -0.742122293243843     1.58016878596695     2.58022240819523
21 1    0.517922968646644   0.0216899478077721    0.500293421810852   -0.420925356957355   -0.505283540683343   -0.133868294385422      -7.766442237581     1.54969711482994    0.284767141356988
22 1    0.473653998873374    0.238914104841115    0.762875630756184    0.258675728507247    0.169175641851806   -0.187686676228471     3.53486114737228     4.34323260145272    0.860442694029218
23 1    0.757717763468008   0.0115824978694263    0.749833883049519   -0.252900378711092   -0.283958041610868  -0.0482996733964986     2.36423947695642    -3.96444903290648   -0.374533868831511
24 1    0.737093170191201    0.250342240586406    0.523701304298015    0.184846281048321    0.500576523145811   -0.430921904121174     4.35557167527721    -2.84176871897628   -0.540902891689556
25 1    0.468263105002166     0.47637821084686 -0.00921957450151467    0.511607350539529     0.74174473179684   -0.071756487486449     1.82026277764095    -2.26342171598023    -4.40667724429657
26 1    0.518596722339339    0.769003137323125    0.262364413710316    -0.18515990633877   -0.255326456651524   -0.254481140232707     5.03060643589142     2.06295700005717    -1.06636709245976
27 1    0.747568499982208    0.510160821699856    0.244942897266696   -0.535723754976222   0.0715257903802995   0.0385724456106555     0.47910897089269     1.45651530852653    0.629098936118655
28 1    0.764560759458163    0.737002816596032   0.0100614051461889   -0.385619921094819    0.285573783927114    -0.21409488523986     1.63984900937846     4.22813030676506     2.15011525245975
29 1    0.486624911496278    0.508431202433826     0.49096686956193    0.734792792477065   -0.395564704973729    0.467601751289777    -5.05141534228103     4.36807874186585     2.35926702305912
30 1    0.498617119057144    0.731934988372473    0.741951397963021    0.157183648351418    0.110417836371218    0.043375365651106    -1.44434663425962     3.72711472328298     1.35334319808429
31 1     0.72911217717683    0.491442182356536    0.760164537308128    0.227062194610457    0.217832861913262  -0.0627095737824091     3.87590820478496    -4.02845226550862     2.63813894918645
32 1    0.767524708477595    0.760616656545608     0.49787294471048    -0.50020986239082     0.27653661122879    0.150348907838953     1.97832774151172    0.880711161645673     2.16302723813467
ITEM: TIMESTEP
300
ITEM: NUMBER OF ATOMS
32
ITEM: BOX BOUNDS pp pp pp
-2.1755157966063376e-02 8.1217551579660743e+00
-2.1755157966063376e-02 8.1217551579660743e+00
-2.1755157966063376e-02 8.1217551579660743e+00
ITEM: ATOMS id type xsu ysu zsu fx fy fz vx vy vz
1 1  -0.0118657879655188 -0.00627836958238959  0.00269945164268393     0.10330595449038   -0.126711954531252   -0.475038830476082    -3.56532373530255    -5.08447657169588    -1.87493959221098
2 1   0.0217305408702941    0.211063069623378    0.244177589992432   -0.306288410770556      1.0043820700573    0.116670323401771    0.508786864273909    -1.21818775728456     2.03263825897943
3 1    0.231825190882773 -0.00544729864230931    0.228129835904042    0.643434215302689 -0.00805289869796654    0.590026541360534     1.56443417813114     1.03153444333866     2.08370949747748
4 1    0.267432988607879    0.272299036894424  -0.0427461976120753   -0.581488635656705   -0.259005223868509     1.12221977259051     6.26955818631044    0.615085497937781    -6.62001914403988
5 1  -0.0202754265840213  -0.0201244229972417    0.514006069570769    0.441900317974689  -0.0226950391740571  -0.0387977792295186    0.779527770180333   0.0107808537477908   -0.648488081172113
6 1 -0.00717026722946912    0.227086883580569    0.754136603150187   -0.188584923273881    0.892829745953781   -0.068589543018916    -1.70457560834863     7.30204630648341    -3.65002876219238
7 1    0.230905742783989  0.00717524937954295    0.755168408185114    0.550197576664504    -0.35724369208795   -0.316393178934528     1.03216835157577   -0.105783003974029    -2.06438704602015
8 1    0.253885616780963    0.261675116077527    0.521350524398258   -0.319163768215234    -0.58525659784816    0.217991619517281     1.32781071348269    0.888852665226805     7.32357041735267
9 1  -0.0186474075146066    0.519016030458829   0.0134195186874422    0.498723299363535   -0.554158398793791   -0.230015936466474     1.14800553662458    0.464637618425352    -1.60680575539466
10 1  -0.0318616620991747    0.757870577055542    0.251116824408655    0.661285875405178   -0.332451890011045   0.0764650936442225    -0.39800584206487     2.44850565667528    -1.25914185604383
11 1    0.236658819162699    0.490692453769725    0.234344492779087    0.167555967805086    0.339026789982986   -0.210925689743923    -1.60157831375639    -3.23146586463319     1.32060242291658
12 1    0.280676188363714    0.780791356278428 -0.00924931992398115   -0.673867168784644   -0.646962598241011   0.0667267300025519    -2.17978862542408     -2.9718246120305    -3.05425688239979
13 1   0.0108635439530644    0.466400863838544    0.469587280442511   -0.350484520452699    0.691998076899428    0.542127577096076    -1.42961384835643   0.0706150807259099    -7.05123762890386
14 1   0.0369500375969665    0.701529886131652    0.741396820586715   -0.525366467562997    0.950690426281851   -0.115460200493635     1.40724196069164     3.24201872504306     3.59124973696076
15 1    0.276739434972114    0.498683689110294    0.761644655647615   0.0641261152322242    0.459238882030478   -0.497156162573235     1.42451926138352    -2.64548734469724      5.8905708743951
16 1    0.247020742434302    0.755053140826249    0.476973189892192   -0.313412631743085   -0.474072620071643    0.599423754873504     2.19027046162238     1.12929207690557     5.67813222555933
17 1    0.508027011178456   0.0594979614763815   0.0226517018836603   -0.268095079892471    -1.11736887441321 -0.00144580532607319 0.000844587156320533     2.65626819143397    -2.11032668415853
18 1    0.461757544460966    0.260608405023959     0.29820775434257    0.671837185281848   -0.487217004886352    -1.21519928718176    -4.96312834929211    0.389014662418075     1.53861912793002
19 1    0.751928298544385  0.00301300936541793    0.267070922458174   -0.655626389369399    -0.28132667032655   -0.493270326846994    -2.16097004938344   -0.823197610454107    0.383648475912356
20 1    0.750685332439616    0.259482952478152   0.0264339917582674    0.265270588557112   0.0344532771868235   -0.483787160176214    -3.60624438871236     4.46494481209971     1.03263617009315
21 1     0.48904167195235  -0.0195629426304436    0.495257218020924 -0.00721000932137485     0.67330067257363  -0.0645669921644225     2.08175414820028   -0.523692741586762    -1.57272374745299
22 1    0.518977966762236    0.246523886712907    0.742183060743628  -0.0494346614568242    0.316003503509409  -0.0511084133838734     1.17308142515673     1.55255543633689   -0.798472294930695
23 1    0.734362026547046   0.0117133964871527    0.757407685611042     0.42106400990663   -0.312979746882259   -0.178550050963959      2.4501080501492     3.96569297735973   -0.311844070016262
24 1    0.758327060623174    0.239784590174395    0.480910195112983  -0.0590802559403237   0.0639356739546811     0.55629214623537     1.59261299431034    -3.10964494109598      3.0338036413377
25 1     0.52929819552935    0.526788469203098  0.00723568044907097    -0.47557033433475   -0.790379713509762   -0.442827357531865    0.532155866932745    -4.97293126769585     3.12726991103069
26 1    0.472263187926387    0.733355649356554    0.249934927838581    0.896829577561759     0.44734580753468   0.0960877365203415    -1.15915719978039    0.173840741562411    0.953649067142407
27 1    0.748524034669003    0.490196041684044    0.252141428195728   -0.021802380799205    0.266224998353279    0.183282312340918     6.40267405356621    -2.69077407718001    -1.75175558797012
28 1    0.747481662766518    0.766355775028956  -0.0137836083961815   -0.124032451857122   0.0617093304456613    0.335458909811793   -0.542277306793186     1.78891786694081     1.90303051411918
29 1    0.530041298769675    0.483548148969703    0.506341669407789   -0.846202489197359    0.667760603071732    0.285646547470677    -4.76871798055373     2.04663390018234      3.0124649700545
30 1    0.499231092229252    0.775451628589508    0.752892316736393  -0.0729638926000715   -0.458130623706661   -0.154012776365663    -5.91670319097407   -0.848802889404215    -0.75871084076167
31 1    0.771069933057447    0.509103390366363    0.739733349192761   -0.241513289441587   -0.497371068063649    0.268560453194777    0.289495324688408     -3.3359530106795    -3.65515552909723
32 1    0.724115387528286    0.736652375911035    0.499225958892907    0.694657077124656     0.44248475727811   -0.019834027183186      1.8210347043056    -2.67901582043171    -4.11730180849624
ITEM: TIMESTEP
400
ITEM: NUMBER OF ATOMS
32
ITEM: BOX BOUNDS pp pp pp
-7.9937125852241511e-02 8.1799371258522573e+00
-7.9937125852241511e-02 8.1799371258522573e+00
-7.9937125852241511e-02 8.1799371258522573e+00
ITEM: ATOMS id type xsu ysu zsu fx fy fz vx vy vz
1 1   0.0116416950112352   0.0169254230874003 -0.00555548769233383    -0.37858515667116   -0.952629859550512   0.0729575384489204     2.38877053645418     2.46396136786846     5.01560538878171
2 1 -0.00979263906009464    0.257576354010553    0.251096391063015  -0.0258554167400655    0.126732865109574    0.241356832442673    -2.74409368645871      4.0674547745756     1.78227634078965
3 1    0.269004945004667 -0.00874541542850693    0.274606463309624   0.0773573642975615    0.103425265471239   -0.475783235935379     1.67687802183785     1.19439189484261   -0.132656202032732
4 1    0.225539528813783    0.216250251633141    0.031103517958968     1.07415892658382    0.797687139664396   -0.395653460604562   -0.721094674362972    -2.43878014718305     6.26014803162846
5 1   0.0194677517047239   0.0135509121653286    0.490145951070758   -0.553412788179008    -0.14310353744363    0.293643921360996   -0.662805225542061     5.40011086329774    -1.74519459553856
6 1  0.00875293962269552    0.270716964904182    0.751129786760316   -0.165880358575835    -0.51432144633874   -0.320158702494509     1.48036820765046    -9.41367755421634    -1.40791552049629
7 1    0.266897257282949  -0.0118432221526064    0.757762149380824   -0.684514761018241     0.16081643943406   -0.404949730381841    -2.17711871582486    -0.99199586991317     1.51084134770253
8 1    0.244455787930406    0.252249639470733    0.495462292481875    0.305014650852744    0.244878440153815    0.151446899235726     2.30046057104492     3.45723646690525    -11.8390851153216
9 1  0.00594831728903955     0.49118986194253 -0.00287798266901973   -0.293345255077214    0.172205605766448    0.206707925024419    -5.26070457946792    0.734616675902283     3.92905417219486
10 1   0.0205249200571416    0.751571127328702    0.241332760222804   -0.827773390295546   0.0518419337929127    0.304701982154212     -4.6915986065217    -0.22233545530447     1.90814382539815
11 1     0.25972007629548    0.504458986376449    0.258302899439855   -0.479381223661994   -0.357817082869308   -0.245065500064628     1.13480196874483    -2.54069691397692     4.91557649934825
12 1    0.240049596179915    0.740226604666418   0.0171582617110744    0.234252760300332    0.122301026986705   -0.521868779072132     4.12715389034675     2.96227268895117    -1.79051354120796
13 1  0.00380362679345581    0.526260134341101    0.526627546065242   -0.413316359659698   -0.559366510985456    -0.72868801519392    -1.11934673816303   -0.898716403136762     5.72013664403453
14 1  -0.0398547163300691    0.767935461989509    0.754463235881531      1.1798240382152   -0.360263862576762    0.324346902005288   -0.557930062029941    -2.19793157863255     3.44359641811509
15 1    0.234782986259233    0.515610352390468    0.753846763385013    0.577396683835704  -0.0728848970730229   0.0663371213047821    -3.98482463682239    -2.12319433928888    -1.76859535803417
16 1    0.236781652625154    0.750061935582266     0.50755637124314    0.455241217173919    0.262351755263265    0.126005256424418     1.05431193564907     7.76256883159802    -3.08462639565231
17 1    0.485425428586723  -0.0452070179830457   -0.022627219628589    0.513861836755469    0.942051141938442    0.837726414263046   -0.362977260820099    -3.94764226280173   -0.341897473829161
18 1    0.522015843587269    0.247645356845965    0.227530067578414   -0.514549559464747   -0.221741836383164    0.263041758308122     6.00746335096447    -1.19130220080729    -3.02577151853542
19 1    0.743699077355132  0.00424139444430693    0.227270700477902     0.23913805786156   -0.338466255983389    0.300004469196312     8.13910707524012    0.955204186421391    -1.52751865253867