ITEM: TIMESTEP
0
ITEM: NUMBER OF ATOMS
1
ITEM: BOX BOUNDS pp pp pp
-1.76 1.76
-1.76 1.76
-1.76 1.76
ITEM: ATOMS id type xsu ysu zsu fx fy fz vx vy vz c_test c_test
1 1 0 0 0 0 0 0 0 0 0 10 10
